<?xml version="1.0"?>
<VTKFile type="UnstructuredGrid" version="1.0" byte_order="LittleEndian">
  <UnstructuredGrid>
    <Piece NumberOfPoints="+27" NumberOfCells="+11">
      <Points>
        <DataArray type="Float32" NumberOfComponents="3" Name="Points" format="ascii">
           0.000000E+00  0.000000E+00  0.000000E+00+0.100000E+01  0.000000E+00  0.000000E+00+0.200000E+01  0.000000E+00  0.000000E+00 0.000000E+00 +0.100000E+01  0.000000E+00+0.100000E+01 +0.100000E+01  0.000000E+00+0.200000E+01 +0.100000E+01  0.000000E+00 0.000000E+00  0.000000E+00 +0.100000E+01+0.100000E+01  0.000000E+00 +0.100000E+01+0.200000E+01  0.000000E+00 +0.100000E+01 0.000000E+00 +0.100000E+01 +0.100000E+01+0.100000E+01 +0.100000E+01 +0.100000E+01+0.200000E+01 +0.100000E+01 +0.100000E+01 0.000000E+00 +0.100000E+01 +0.200000E+01+0.100000E+01 +0.100000E+01 +0.200000E+01+0.200000E+01 +0.100000E+01 +0.200000E+01 0.000000E+00 +0.100000E+01 +0.300000E+01+0.100000E+01 +0.100000E+01 +0.300000E+01+0.200000E+01 +0.100000E+01 +0.300000E+01 0.000000E+00 +0.100000E+01 +0.400000E+01+0.100000E+01 +0.100000E+01 +0.400000E+01+0.200000E+01 +0.100000E+01 +0.400000E+01 0.000000E+00 +0.100000E+01 +0.500000E+01+0.100000E+01 +0.100000E+01 +0.500000E+01+0.200000E+01 +0.100000E+01 +0.500000E+01 0.000000E+00 +0.100000E+01 +0.600000E+01+0.100000E+01 +0.100000E+01 +0.600000E+01+0.200000E+01 +0.100000E+01 +0.600000E+01
        </DataArray>
      </Points>
      <Cells>
        <DataArray type="Int32" NumberOfComponents="1" Name="connectivity" format="ascii">
          +0          +1          +4          +3          +6          +7          +10         +9          +1          +2          +5          +4          +7          +8          +11         +10         +6          +10         +9          +12         +5          +11         +10         +14         +15         +16         +17         +14         +13         +12         +18         +15         +19         +16         +20         +17         +22         +23         +20         +19         +21         +22         +18         +22         +19         +18         +26         +25         +24         
        </DataArray>
        <DataArray type="Int32" NumberOfComponents="1" Name="offsets" format="ascii">
          +8          +16         +20         +24         +30         +36         +40         +43         +46         +48         +49         
        </DataArray>
        <DataArray type="Int8" NumberOfComponents="1" Name="types" format="ascii">
          +12  +12  +10  +10  +7   +6   +9   +5   +5   +3   +1   
        </DataArray>
      </Cells>
      <PointData>
        <DataArray type="Float64" NumberOfComponents="1" Name="scalars" format="ascii">
           0.000000000000000E+000 +0.100000000000000E+001 +0.200000000000000E+001 +0.300000000000000E+001 +0.400000000000000E+001 +0.500000000000000E+001 +0.600000000000000E+001 +0.700000000000000E+001 +0.800000000000000E+001 +0.900000000000000E+001 +0.100000000000000E+002 +0.110000000000000E+002 +0.120000000000000E+002 +0.130000000000000E+002 +0.140000000000000E+002 +0.150000000000000E+002 +0.160000000000000E+002 +0.170000000000000E+002 +0.180000000000000E+002 +0.190000000000000E+002 +0.200000000000000E+002 +0.210000000000000E+002 +0.220000000000000E+002 +0.230000000000000E+002 +0.240000000000000E+002 +0.250000000000000E+002 +0.260000000000000E+002 
        </DataArray>
        <DataArray type="Int32" NumberOfComponents="3" Name="vector" format="ascii">
          +1          +0          +0         +1          +1          +0         +0          +2          +0         +1          +0          +0         +1          +1          +0         +0          +2          +0         +1          +0          +0         +1          +1          +0         +0          +2          +0         +1          +0          +0         +1          +1          +0         +0          +2          +0         +0          +0          +1         +0          +0          +1         +0          +0          +1         +0          +0          +1         +0          +0          +1         +0          +0          +1         +0          +0          +1         +0          +0          +1         +0          +0          +1         +0          +0          +1         +0          +0          +1         +0          +0          +1         +0          +0          +1         +0          +0          +1         +0          +0          +1         
        </DataArray>
      </PointData>
    </Piece>
  </UnstructuredGrid>
</VTKFile>
